<?xml version="1.0"?>
<VTKFile type="PolyData" version="0.1" byte_order="LittleEndian">
  <PolyData>
    <Piece NumberOfPoints="24" NumberOfPolys="18">
      <Points>
        <DataArray type="Float32" NumberOfComponents="3" format="ascii">
          -1 -1 1 1 -1 1 1 1 1 -1 1 1 -1 -1 -1 1 -1 -1 1 1 -1 -1 1 -1 -7.0 -1.0 0.05 -1.0 -1.0 0.05 -1.0 1.0 0.05 -7.0 1.0 0.05 -7.0 -1.0 -0.05 -1.0 -1.0 -0.05 -1.0 1.0 -0.05 -7.0 1.0 -0.05 1.0 -1.0 0.05 7.0 -1.0 0.05 7.0 1.0 0.05 1.0 1.0 0.05 1.0 -1.0 -0.05 7.0 -1.0 -0.05 7.0 1.0 -0.05 1.0 1.0 -0.05
        </DataArray>
      </Points>
      <Polys>
        <DataArray type="Int32" Name="connectivity" format="ascii">
          0 1 2 3 5 4 7 6 4 5 1 0 3 2 6 7 4 0 3 7 1 5 6 2 8 9 10 11 13 12 15 14 12 13 9 8 11 10 14 15 12 8 11 15 9 13 14 10 16 17 18 19 21 20 23 22 20 21 17 16 19 18 22 23 20 16 19 23 17 21 22 18
        </DataArray>
        <DataArray type="Int32" Name="offsets" format="ascii">
          4 8 12 16 20 24 28 32 36 40 44 48 52 56 60 64 68 72
        </DataArray>
      </Polys>
      <PointData Scalars="Temperature">
        <DataArray type="Float32" Name="Temperature" format="ascii">
          260.57 318.30 347.17 289.43 202.83 260.57 289.43 231.70 212.32 223.77 259.10 219.39 211.61 220.23 255.57 218.69 294.43 331.31 338.39 329.77 290.90 330.61 337.68 326.23
        </DataArray>
      </PointData>
    </Piece>
  </PolyData>
</VTKFile>
