# vtk DataFile Version 3.0
upload-sample
ASCII
DATASET POLYDATA
POINTS 3 float
0 0 0  1 0 0  0 1 0
POLYGONS 1 4
3 0 1 2
POINT_DATA 3
SCALARS temperature float 1
LOOKUP_TABLE default
0 1 2
